 Entering Gaussian System, Link 0=g09
 Input=o2.gjf
 Output=o2.log
 Initial command:
 /home/software/g09/l1.exe /home/tmpgauss/Gau-26896.inp -scrdir=/home/tmpgauss/
 Entering Link 1 = /home/software/g09/l1.exe PID=     26897.
  
 Copyright (c) 1988,1990,1992,1993,1995,1998,2003,2009,2011,
            Gaussian, Inc.  All Rights Reserved.
  
 This is part of the Gaussian(R) 09 program.  It is based on
 the Gaussian(R) 03 system (copyright 2003, Gaussian, Inc.),
 the Gaussian(R) 98 system (copyright 1998, Gaussian, Inc.),
 the Gaussian(R) 94 system (copyright 1995, Gaussian, Inc.),
 the Gaussian 92(TM) system (copyright 1992, Gaussian, Inc.),
 the Gaussian 90(TM) system (copyright 1990, Gaussian, Inc.),
 the Gaussian 88(TM) system (copyright 1988, Gaussian, Inc.),
 the Gaussian 86(TM) system (copyright 1986, Carnegie Mellon
 University), and the Gaussian 82(TM) system (copyright 1983,
 Carnegie Mellon University). Gaussian is a federally registered
 trademark of Gaussian, Inc.
  
 This software contains proprietary and confidential information,
 including trade secrets, belonging to Gaussian, Inc.
  
 This software is provided under written license and may be
 used, copied, transmitted, or stored only in accord with that
 written license.
  
 The following legend is applicable only to US Government
 contracts under FAR:
  
                    RESTRICTED RIGHTS LEGEND
  
 Use, reproduction and disclosure by the US Government is
 subject to restrictions as set forth in subparagraphs (a)
 and (c) of the Commercial Computer Software - Restricted
 Rights clause in FAR 52.227-19.
  
 Gaussian, Inc.
 340 Quinnipiac St., Bldg. 40, Wallingford CT 06492
  
  
 ---------------------------------------------------------------
 Warning -- This program may not be used in any manner that
 competes with the business of Gaussian, Inc. or will provide
 assistance to any competitor of Gaussian, Inc.  The licensee
 of this program is prohibited from giving any competitor of
 Gaussian, Inc. access to this program.  By using this program,
 the user acknowledges that Gaussian, Inc. is engaged in the
 business of creating and licensing software in the field of
 computational chemistry and represents and warrants to the
 licensee that it is not a competitor of Gaussian, Inc. and that
 it will not use this program in any manner prohibited above.
 ---------------------------------------------------------------
  

 Cite this work as:
 Gaussian 09, Revision C.01,
 M. J. Frisch, G. W. Trucks, H. B. Schlegel, G. E. Scuseria, 
 M. A. Robb, J. R. Cheeseman, G. Scalmani, V. Barone, B. Mennucci, 
 G. A. Petersson, H. Nakatsuji, M. Caricato, X. Li, H. P. Hratchian, 
 A. F. Izmaylov, J. Bloino, G. Zheng, J. L. Sonnenberg, M. Hada, 
 M. Ehara, K. Toyota, R. Fukuda, J. Hasegawa, M. Ishida, T. Nakajima, 
 Y. Honda, O. Kitao, H. Nakai, T. Vreven, J. A. Montgomery, Jr., 
 J. E. Peralta, F. Ogliaro, M. Bearpark, J. J. Heyd, E. Brothers, 
 K. N. Kudin, V. N. Staroverov, T. Keith, R. Kobayashi, J. Normand, 
 K. Raghavachari, A. Rendell, J. C. Burant, S. S. Iyengar, J. Tomasi, 
 M. Cossi, N. Rega, J. M. Millam, M. Klene, J. E. Knox, J. B. Cross, 
 V. Bakken, C. Adamo, J. Jaramillo, R. Gomperts, R. E. Stratmann, 
 O. Yazyev, A. J. Austin, R. Cammi, C. Pomelli, J. W. Ochterski, 
 R. L. Martin, K. Morokuma, V. G. Zakrzewski, G. A. Voth, 
 P. Salvador, J. J. Dannenberg, S. Dapprich, A. D. Daniels, 
 O. Farkas, J. B. Foresman, J. V. Ortiz, J. Cioslowski, 
 and D. J. Fox, Gaussian, Inc., Wallingford CT, 2010.
 
 ******************************************
 Gaussian 09:  EM64L-G09RevC.01 23-Sep-2011
                13-Jan-2021 
 ******************************************
 ---------------
 #HF/6-31g** opt
 ---------------
 1/18=20,19=15,38=1/1,3;
 2/9=110,12=2,17=6,18=5,40=1/2;
 3/5=1,6=6,7=101,11=9,16=1,25=1,30=1,71=1/1,2,3;
 4//1;
 5/5=2,38=5/2;
 6/7=2,8=2,9=2,10=2,28=1/1;
 7//1,2,3,16;
 1/18=20,19=15/3(2);
 2/9=110/2;
 99//99;
 2/9=110/2;
 3/5=1,6=6,7=101,11=9,16=1,25=1,30=1,71=1/1,2,3;
 4/5=5,16=3/1;
 5/5=2,38=5/2;
 7//1,2,3,16;
 1/18=20,19=15/3(-5);
 2/9=110/2;
 6/7=2,8=2,9=2,10=2,19=2,28=1/1;
 99/9=1/99;
 --
 O2
 --
 Charge =  0 Multiplicity = 1
 Symbolic Z-Matrix:
 O
 O                    1     1. 
 

 GradGradGradGradGradGradGradGradGradGradGradGradGradGradGradGradGradGrad
 Berny optimization.
 Initialization pass.
                           ----------------------------
                           !    Initial Parameters    !
                           ! (Angstroms and Degrees)  !
 --------------------------                            --------------------------
 ! Name  Definition              Value          Derivative Info.                !
 --------------------------------------------------------------------------------
 ! R1    R(1,2)                  1.0            estimate D2E/DX2                !
 --------------------------------------------------------------------------------
 Trust Radius=3.00D-01 FncErr=1.00D-07 GrdErr=1.00D-07
 Number of steps in this run=     20 maximum allowed number of steps=    100.
 GradGradGradGradGradGradGradGradGradGradGradGradGradGradGradGradGradGrad

                          Input orientation:                          
 ---------------------------------------------------------------------
 Center     Atomic      Atomic             Coordinates (Angstroms)
 Number     Number       Type             X           Y           Z
 ---------------------------------------------------------------------
      1          8           0        0.000000    0.000000    0.000000
      2          8           0        0.000000    0.000000    1.000000
 ---------------------------------------------------------------------
 Stoichiometry    O2
 Framework group  D*H[C*(O.O)]
 Deg. of freedom     1
 Full point group                 D*H     NOp   8
 Largest Abelian subgroup         D2H     NOp   8
 Largest concise Abelian subgroup C2      NOp   2
                         Standard orientation:                         
 ---------------------------------------------------------------------
 Center     Atomic      Atomic             Coordinates (Angstroms)
 Number     Number       Type             X           Y           Z
 ---------------------------------------------------------------------
      1          8           0        0.000000    0.000000    0.500000
      2          8           0        0.000000    0.000000   -0.500000
 ---------------------------------------------------------------------
 Rotational constants (GHZ):      0.0000000     63.1924604     63.1924604
 Standard basis: 6-31G(d,p) (6D, 7F)
 There are     8 symmetry adapted basis functions of AG  symmetry.
 There are     1 symmetry adapted basis functions of B1G symmetry.
 There are     3 symmetry adapted basis functions of B2G symmetry.
 There are     3 symmetry adapted basis functions of B3G symmetry.
 There are     1 symmetry adapted basis functions of AU  symmetry.
 There are     8 symmetry adapted basis functions of B1U symmetry.
 There are     3 symmetry adapted basis functions of B2U symmetry.
 There are     3 symmetry adapted basis functions of B3U symmetry.
 Integral buffers will be    131072 words long.
 Raffenetti 1 integral format.
 Two-electron integral symmetry is turned on.
    30 basis functions,    56 primitive gaussians,    30 cartesian basis functions
     8 alpha electrons        8 beta electrons
       nuclear repulsion energy        33.8673413498 Hartrees.
 NAtoms=    2 NActive=    2 NUniq=    1 SFac= 4.00D+00 NAtFMM=   60 NAOKFM=F Big=F
 One-electron integrals computed using PRISM.
 NBasis=    30 RedAO= T  NBF=     8     1     3     3     1     8     3     3
 NBsUse=    30 1.00D-06 NBFU=     8     1     3     3     1     8     3     3
 Harris functional with IExCor=  205 diagonalized for initial guess.
 ExpMin= 2.70D-01 ExpMax= 5.48D+03 ExpMxC= 8.25D+02 IAcc=1 IRadAn=         1 AccDes= 0.00D+00
 HarFok:  IExCor=  205 AccDes= 0.00D+00 IRadAn=         1 IDoV= 1
 ScaDFX=  1.000000  1.000000  1.000000  1.000000
 FoFCou: FMM=F IPFlag=           0 FMFlag=      100000 FMFlg1=           0
         NFxFlg=           0 DoJE=T BraDBF=F KetDBF=T FulRan=T
         Omega=  0.000000  0.000000  1.000000  0.000000  0.000000 ICntrl=     500 IOpCl=  0
         NMat0=    1 NMatS0=    1 NMatT0=    0 NMatD0=    1 NMtDS0=    0 NMtDT0=    0
         I1Cent=           4 NGrid=           0.
 Petite list used in FoFCou.
 Initial guess orbital symmetries:
       Occupied  (SGG) (SGU) (SGG) (SGU) (PIU) (PIU) (SGG) (PIG)
       Virtual   (PIG) (SGU) (SGG) (PIU) (PIU) (SGG) (SGU) (PIG)
                 (PIG) (DLTG) (DLTG) (SGU) (PIU) (PIU) (DLTU) (DLTU)
                 (SGG) (PIG) (PIG) (SGU) (SGG) (SGU)
 Requested convergence on RMS density matrix=1.00D-08 within 128 cycles.
 Requested convergence on MAX density matrix=1.00D-06.
 Requested convergence on             energy=1.00D-06.
 No special actions if energy rises.
 Keep R1 ints in memory in canonical form, NReq=949693.
 SCF Done:  E(RHF) =  -149.444014196     A.U. after    9 cycles
             Convg  =    0.9603D-09             -V/T =  1.9947

 **********************************************************************

            Population analysis using the SCF density.

 **********************************************************************

 Orbital symmetries:
       Occupied  (SGG) (SGU) (SGG) (SGU) (PIU) (SGG) (PIU) (?A)
       Virtual   (?A) (SGU) (SGG) (SGG) (PIU) (PIU) (SGU) (?A)
                 (?A) (SGU) (DLTG) (DLTG) (PIU) (PIU) (DLTU) (DLTU)
                 (SGG) (PIG) (PIG) (SGU) (SGG) (SGU)
 Unable to determine electronic state:  an orbital has unidentified symmetry.
 Alpha  occ. eigenvalues --  -20.71686 -20.71420  -1.89333  -1.02445  -0.86752
 Alpha  occ. eigenvalues --   -0.79336  -0.77695  -0.36257
 Alpha virt. eigenvalues --    0.14072   0.67761   0.86742   1.01340   1.01485
 Alpha virt. eigenvalues --    1.01735   1.16915   1.17658   1.21294   1.67273
 Alpha virt. eigenvalues --    1.72491   1.72509   1.96934   1.97311   2.35048
 Alpha virt. eigenvalues --    2.35058   3.05772   3.09426   3.11634   3.37927
 Alpha virt. eigenvalues --    3.65126   4.06340
          Condensed to atoms (all electrons):
              1          2
     1  O    8.030695  -0.030695
     2  O   -0.030695   8.030695
 Mulliken atomic charges:
              1
     1  O    0.000000
     2  O    0.000000
 Sum of Mulliken atomic charges =   0.00000
 Mulliken charges with hydrogens summed into heavy atoms:
              1
     1  O    0.000000
     2  O    0.000000
 Sum of Mulliken charges with hydrogens summed into heavy atoms =   0.00000
 Electronic spatial extent (au):  <R**2>=             36.3246
 Charge=              0.0000 electrons
 Dipole moment (field-independent basis, Debye):
    X=              0.0000    Y=              0.0000    Z=              0.0000  Tot=              0.0000
 Quadrupole moment (field-independent basis, Debye-Ang):
   XX=             -8.6360   YY=            -10.4059   ZZ=            -10.6032
   XY=              0.0000   XZ=              0.0000   YZ=              0.0000
 Traceless Quadrupole moment (field-independent basis, Debye-Ang):
   XX=              1.2457   YY=             -0.5242   ZZ=             -0.7215
   XY=              0.0000   XZ=              0.0000   YZ=              0.0000
 Octapole moment (field-independent basis, Debye-Ang**2):
  XXX=              0.0000  YYY=              0.0000  ZZZ=              0.0000  XYY=              0.0000
  XXY=              0.0000  XXZ=              0.0000  XZZ=              0.0000  YZZ=              0.0000
  YYZ=              0.0000  XYZ=              0.0000
 Hexadecapole moment (field-independent basis, Debye-Ang**3):
 XXXX=             -5.2701 YYYY=             -6.9118 ZZZZ=            -21.4924 XXXY=              0.0000
 XXXZ=              0.0000 YYYX=              0.0000 YYYZ=              0.0000 ZZZX=              0.0000
 ZZZY=              0.0000 XXYY=             -2.0303 XXZZ=             -4.1886 YYZZ=             -5.4283
 XXYZ=              0.0000 YYXZ=              0.0000 ZZXY=              0.0000
 N-N= 3.386734134976D+01 E-N=-4.225633064110D+02  KE= 1.502391199589D+02
 Symmetry AG   KE= 7.030179511658D+01
 Symmetry B1G  KE= 3.900551935351D-34
 Symmetry B2G  KE= 1.527407868113D-32
 Symmetry B3G  KE= 6.053309009630D+00
 Symmetry AU   KE= 1.087705359813D-33
 Symmetry B1U  KE= 6.464575560984D+01
 Symmetry B2U  KE= 4.796869337355D+00
 Symmetry B3U  KE= 4.441390885491D+00
 Calling FoFJK, ICntrl=      2127 FMM=F ISym2X=1 I1Cent= 0 IOpClX= 0 NMat=1 NMatS=1 NMatT=0.
 ***** Axes restored to original set *****
 -------------------------------------------------------------------
 Center     Atomic                   Forces (Hartrees/Bohr)
 Number     Number              X              Y              Z
 -------------------------------------------------------------------
      1        8           0.000000000    0.000000000   -0.692400191
      2        8           0.000000000    0.000000000    0.692400191
 -------------------------------------------------------------------
 Cartesian Forces:  Max     0.692400191 RMS     0.399757437

 GradGradGradGradGradGradGradGradGradGradGradGradGradGradGradGradGradGrad
 Berny optimization.
 Internal  Forces:  Max     0.692400191 RMS     0.692400191
 Search for a local minimum.
 Step number   1 out of a maximum of   20
 All quantities printed in internal units (Hartrees-Bohrs-Radians)
 Mixed Optimization -- RFO/linear search
 Second derivative matrix not updated -- first step.
 The second derivative matrix:
                          R1
           R1           3.32740
 ITU=  0
     Eigenvalues ---    3.32740
 RFO step:  Lambda=-1.38331066D-01 EMin= 3.32739821D+00
 Linear search not attempted -- first point.
 Iteration  1 RMS(Cart)=  0.14126922 RMS(Int)=  0.00000000
 Iteration  2 RMS(Cart)=  0.00000000 RMS(Int)=  0.00000000
 ClnCor:  largest displacement from symmetrization is 6.12D-18 for atom     1.
 Variable       Old X    -DE/DX   Delta X   Delta X   Delta X     New X
                                 (Linear)    (Quad)   (Total)
    R1        1.88973   0.69240   0.00000   0.19978   0.19978   2.08951
         Item               Value     Threshold  Converged?
 Maximum Force            0.692400     0.000450     NO 
 RMS     Force            0.692400     0.000300     NO 
 Maximum Displacement     0.099892     0.001800     NO 
 RMS     Displacement     0.141269     0.001200     NO 
 Predicted change in Energy=-7.192621D-02
 GradGradGradGradGradGradGradGradGradGradGradGradGradGradGradGradGradGrad

                          Input orientation:                          
 ---------------------------------------------------------------------
 Center     Atomic      Atomic             Coordinates (Angstroms)
 Number     Number       Type             X           Y           Z
 ---------------------------------------------------------------------
      1          8           0        0.000000    0.000000   -0.052861
      2          8           0        0.000000    0.000000    1.052861
 ---------------------------------------------------------------------
 Stoichiometry    O2
 Framework group  D*H[C*(O.O)]
 Deg. of freedom     1
 Full point group                 D*H     NOp   8
 Largest Abelian subgroup         D2H     NOp   8
 Largest concise Abelian subgroup C2      NOp   2
                         Standard orientation:                         
 ---------------------------------------------------------------------
 Center     Atomic      Atomic             Coordinates (Angstroms)
 Number     Number       Type             X           Y           Z
 ---------------------------------------------------------------------
      1          8           0        0.000000    0.000000    0.552861
      2          8           0        0.000000    0.000000   -0.552861
 ---------------------------------------------------------------------
 Rotational constants (GHZ):      0.0000000     51.6860910     51.6860910
 Standard basis: 6-31G(d,p) (6D, 7F)
 There are     8 symmetry adapted basis functions of AG  symmetry.
 There are     1 symmetry adapted basis functions of B1G symmetry.
 There are     3 symmetry adapted basis functions of B2G symmetry.
 There are     3 symmetry adapted basis functions of B3G symmetry.
 There are     1 symmetry adapted basis functions of AU  symmetry.
 There are     8 symmetry adapted basis functions of B1U symmetry.
 There are     3 symmetry adapted basis functions of B2U symmetry.
 There are     3 symmetry adapted basis functions of B3U symmetry.
 Integral buffers will be    131072 words long.
 Raffenetti 1 integral format.
 Two-electron integral symmetry is turned on.
    30 basis functions,    56 primitive gaussians,    30 cartesian basis functions
     8 alpha electrons        8 beta electrons
       nuclear repulsion energy        30.6291762180 Hartrees.
 NAtoms=    2 NActive=    2 NUniq=    1 SFac= 4.00D+00 NAtFMM=   60 NAOKFM=F Big=F
 One-electron integrals computed using PRISM.
 NBasis=    30 RedAO= T  NBF=     8     1     3     3     1     8     3     3
 NBsUse=    30 1.00D-06 NBFU=     8     1     3     3     1     8     3     3
 Initial guess read from the read-write file.
 B after Tr=     0.000000    0.000000    0.000000
         Rot=    1.000000    0.000000    0.000000    0.000000 Ang=   0.00 deg.
 Initial guess orbital symmetries:
       Occupied  (SGG) (SGU) (SGG) (SGU) (PIU) (SGG) (PIU) (?A)
       Virtual   (?A) (SGU) (SGG) (SGG) (PIU) (PIU) (SGU) (?A)
                 (?A) (SGU) (DLTG) (DLTG) (PIU) (PIU) (DLTU) (DLTU)
                 (SGG) (?A) (?A) (SGU) (SGG) (SGU)
 Harris functional with IExCor=  205 diagonalized for initial guess.
 ExpMin= 2.70D-01 ExpMax= 5.48D+03 ExpMxC= 8.25D+02 IAcc=1 IRadAn=         1 AccDes= 0.00D+00
 HarFok:  IExCor=  205 AccDes= 0.00D+00 IRadAn=         1 IDoV= 1
 ScaDFX=  1.000000  1.000000  1.000000  1.000000
 FoFCou: FMM=F IPFlag=           0 FMFlag=      100000 FMFlg1=           0
         NFxFlg=           0 DoJE=T BraDBF=F KetDBF=T FulRan=T
         Omega=  0.000000  0.000000  1.000000  0.000000  0.000000 ICntrl=     500 IOpCl=  0
         NMat0=    1 NMatS0=    1 NMatT0=    0 NMatD0=    1 NMtDS0=    0 NMtDT0=    0
         I1Cent=           4 NGrid=           0.
 Petite list used in FoFCou.
 Requested convergence on RMS density matrix=1.00D-08 within 128 cycles.
 Requested convergence on MAX density matrix=1.00D-06.
 Requested convergence on             energy=1.00D-06.
 No special actions if energy rises.
 Keep R1 ints in memory in canonical form, NReq=949693.
 SCF Done:  E(RHF) =  -149.524088867     A.U. after   10 cycles
             Convg  =    0.1964D-08             -V/T =  2.0008
 Calling FoFJK, ICntrl=      2127 FMM=F ISym2X=1 I1Cent= 0 IOpClX= 0 NMat=1 NMatS=1 NMatT=0.
 ***** Axes restored to original set *****
 -------------------------------------------------------------------
 Center     Atomic                   Forces (Hartrees/Bohr)
 Number     Number              X              Y              Z
 -------------------------------------------------------------------
      1        8           0.000000000    0.000000000   -0.168896135
      2        8           0.000000000    0.000000000    0.168896135
 -------------------------------------------------------------------
 Cartesian Forces:  Max     0.168896135 RMS     0.097512229

 GradGradGradGradGradGradGradGradGradGradGradGradGradGradGradGradGradGrad
 Berny optimization.
 Using GEDIIS/GDIIS optimizer.
 Internal  Forces:  Max     0.168896135 RMS     0.168896135
 Search for a local minimum.
 Step number   2 out of a maximum of   20
 All quantities printed in internal units (Hartrees-Bohrs-Radians)
 Mixed Optimization -- RFO/linear search
 Update second derivatives using D2CorX and points    1    2
 DE= -8.01D-02 DEPred=-7.19D-02 R= 1.11D+00
 SS=  1.41D+00  RLast= 2.00D-01 DXNew= 5.0454D-01 5.9935D-01
 Trust test= 1.11D+00 RLast= 2.00D-01 DXMaxT set to 5.05D-01
 The second derivative matrix:
                          R1
           R1           2.62034
 ITU=  1  0
 Use linear search instead of GDIIS.
     Eigenvalues ---    2.62034
 RFO step:  Lambda= 0.00000000D+00 EMin= 2.62033916D+00
 Quartic linear search produced a step of  0.62504.
 Iteration  1 RMS(Cart)=  0.08829853 RMS(Int)=  0.00000000
 Iteration  2 RMS(Cart)=  0.00000000 RMS(Int)=  0.00000000
 ClnCor:  largest displacement from symmetrization is 3.82D-18 for atom     1.
 Variable       Old X    -DE/DX   Delta X   Delta X   Delta X     New X
                                 (Linear)    (Quad)   (Total)
    R1        2.08951   0.16890   0.12487   0.00000   0.12487   2.21438
         Item               Value     Threshold  Converged?
 Maximum Force            0.168896     0.000450     NO 
 RMS     Force            0.168896     0.000300     NO 
 Maximum Displacement     0.062436     0.001800     NO 
 RMS     Displacement     0.088299     0.001200     NO 
 Predicted change in Energy=-6.607467D-04
 GradGradGradGradGradGradGradGradGradGradGradGradGradGradGradGradGradGrad

                          Input orientation:                          
 ---------------------------------------------------------------------
 Center     Atomic      Atomic             Coordinates (Angstroms)
 Number     Number       Type             X           Y           Z
 ---------------------------------------------------------------------
      1          8           0        0.000000    0.000000   -0.085901
      2          8           0        0.000000    0.000000    1.085901
 ---------------------------------------------------------------------
 Stoichiometry    O2
 Framework group  D*H[C*(O.O)]
 Deg. of freedom     1
 Full point group                 D*H     NOp   8
 Largest Abelian subgroup         D2H     NOp   8
 Largest concise Abelian subgroup C2      NOp   2
                         Standard orientation:                         
 ---------------------------------------------------------------------
 Center     Atomic      Atomic             Coordinates (Angstroms)
 Number     Number       Type             X           Y           Z
 ---------------------------------------------------------------------
      1          8           0        0.000000    0.000000    0.585901
      2          8           0        0.000000    0.000000   -0.585901
 ---------------------------------------------------------------------
 Rotational constants (GHZ):      0.0000000     46.0211162     46.0211162
 Standard basis: 6-31G(d,p) (6D, 7F)
 There are     8 symmetry adapted basis functions of AG  symmetry.
 There are     1 symmetry adapted basis functions of B1G symmetry.
 There are     3 symmetry adapted basis functions of B2G symmetry.
 There are     3 symmetry adapted basis functions of B3G symmetry.
 There are     1 symmetry adapted basis functions of AU  symmetry.
 There are     8 symmetry adapted basis functions of B1U symmetry.
 There are     3 symmetry adapted basis functions of B2U symmetry.
 There are     3 symmetry adapted basis functions of B3U symmetry.
 Integral buffers will be    131072 words long.
 Raffenetti 1 integral format.
 Two-electron integral symmetry is turned on.
    30 basis functions,    56 primitive gaussians,    30 cartesian basis functions
     8 alpha electrons        8 beta electrons
       nuclear repulsion energy        28.9019434081 Hartrees.
 NAtoms=    2 NActive=    2 NUniq=    1 SFac= 4.00D+00 NAtFMM=   60 NAOKFM=F Big=F
 One-electron integrals computed using PRISM.
 NBasis=    30 RedAO= T  NBF=     8     1     3     3     1     8     3     3
 NBsUse=    30 1.00D-06 NBFU=     8     1     3     3     1     8     3     3
 Initial guess read from the read-write file.
 B after Tr=     0.000000    0.000000    0.000000
         Rot=    1.000000    0.000000    0.000000    0.000000 Ang=   0.00 deg.
 Initial guess orbital symmetries:
       Occupied  (SGG) (SGU) (SGG) (SGU) (PIU) (SGG) (PIU) (?A)
       Virtual   (?A) (SGU) (SGG) (SGU) (PIU) (PIU) (SGG) (?A)
                 (?A) (SGU) (DLTG) (DLTG) (PIU) (PIU) (DLTU) (DLTU)
                 (SGG) (PIG) (PIG) (SGU) (SGG) (SGU)
 Harris functional with IExCor=  205 diagonalized for initial guess.
 ExpMin= 2.70D-01 ExpMax= 5.48D+03 ExpMxC= 8.25D+02 IAcc=1 IRadAn=         1 AccDes= 0.00D+00
 HarFok:  IExCor=  205 AccDes= 0.00D+00 IRadAn=         1 IDoV= 1
 ScaDFX=  1.000000  1.000000  1.000000  1.000000
 FoFCou: FMM=F IPFlag=           0 FMFlag=      100000 FMFlg1=           0
         NFxFlg=           0 DoJE=T BraDBF=F KetDBF=T FulRan=T
         Omega=  0.000000  0.000000  1.000000  0.000000  0.000000 ICntrl=     500 IOpCl=  0
         NMat0=    1 NMatS0=    1 NMatT0=    0 NMatD0=    1 NMtDS0=    0 NMtDT0=    0
         I1Cent=           4 NGrid=           0.
 Petite list used in FoFCou.
 Requested convergence on RMS density matrix=1.00D-08 within 128 cycles.
 Requested convergence on MAX density matrix=1.00D-06.
 Requested convergence on             energy=1.00D-06.
 No special actions if energy rises.
 Keep R1 ints in memory in canonical form, NReq=949693.
 SCF Done:  E(RHF) =  -149.532914941     A.U. after   10 cycles
             Convg  =    0.1449D-08             -V/T =  2.0033
 Calling FoFJK, ICntrl=      2127 FMM=F ISym2X=1 I1Cent= 0 IOpClX= 0 NMat=1 NMatS=1 NMatT=0.
 ***** Axes restored to original set *****
 -------------------------------------------------------------------
 Center     Atomic                   Forces (Hartrees/Bohr)
 Number     Number              X              Y              Z
 -------------------------------------------------------------------
      1        8           0.000000000    0.000000000    0.013877284
      2        8           0.000000000    0.000000000   -0.013877284
 -------------------------------------------------------------------
 Cartesian Forces:  Max     0.013877284 RMS     0.008012053

 GradGradGradGradGradGradGradGradGradGradGradGradGradGradGradGradGradGrad
 Berny optimization.
 Using GEDIIS/GDIIS optimizer.
 Internal  Forces:  Max     0.013877284 RMS     0.013877284
 Search for a local minimum.
 Step number   3 out of a maximum of   20
 All quantities printed in internal units (Hartrees-Bohrs-Radians)
 Mixed Optimization -- RFO/linear search
 Update second derivatives using D2CorX and points    2    3
 DE= -8.83D-03 DEPred=-6.61D-04 R= 1.34D+01
 SS=  1.41D+00  RLast= 1.25D-01 DXNew= 8.4853D-01 3.7462D-01
 Trust test= 1.34D+01 RLast= 1.25D-01 DXMaxT set to 5.05D-01
 The second derivative matrix:
                          R1
           R1           1.46367
 ITU=  1  1
 Use linear search instead of GDIIS.
     Eigenvalues ---    1.46367
 RFO step:  Lambda= 0.00000000D+00 EMin= 1.46367463D+00
 Quartic linear search produced a step of -0.09453.
 Iteration  1 RMS(Cart)=  0.00834694 RMS(Int)=  0.00000000
 Iteration  2 RMS(Cart)=  0.00000000 RMS(Int)=  0.00000000
 ClnCor:  largest displacement from symmetrization is 3.61D-19 for atom     1.
 Variable       Old X    -DE/DX   Delta X   Delta X   Delta X     New X
                                 (Linear)    (Quad)   (Total)
    R1        2.21438  -0.01388  -0.01180   0.00000  -0.01180   2.20258
         Item               Value     Threshold  Converged?
 Maximum Force            0.013877     0.000450     NO 
 RMS     Force            0.013877     0.000300     NO 
 Maximum Displacement     0.005902     0.001800     NO 
 RMS     Displacement     0.008347     0.001200     NO 
 Predicted change in Energy=-6.183611D-05
 GradGradGradGradGradGradGradGradGradGradGradGradGradGradGradGradGradGrad

                          Input orientation:                          
 ---------------------------------------------------------------------
 Center     Atomic      Atomic             Coordinates (Angstroms)
 Number     Number       Type             X           Y           Z
 ---------------------------------------------------------------------
      1          8           0        0.000000    0.000000   -0.082777
      2          8           0        0.000000    0.000000    1.082777
 ---------------------------------------------------------------------
 Stoichiometry    O2
 Framework group  D*H[C*(O.O)]
 Deg. of freedom     1
 Full point group                 D*H     NOp   8
 Largest Abelian subgroup         D2H     NOp   8
 Largest concise Abelian subgroup C2      NOp   2
                         Standard orientation:                         
 ---------------------------------------------------------------------
 Center     Atomic      Atomic             Coordinates (Angstroms)
 Number     Number       Type             X           Y           Z
 ---------------------------------------------------------------------
      1          8           0        0.000000    0.000000    0.582777
      2          8           0        0.000000    0.000000   -0.582777
 ---------------------------------------------------------------------
 Rotational constants (GHZ):      0.0000000     46.5157230     46.5157230
 Standard basis: 6-31G(d,p) (6D, 7F)
 There are     8 symmetry adapted basis functions of AG  symmetry.
 There are     1 symmetry adapted basis functions of B1G symmetry.
 There are     3 symmetry adapted basis functions of B2G symmetry.
 There are     3 symmetry adapted basis functions of B3G symmetry.
 There are     1 symmetry adapted basis functions of AU  symmetry.
 There are     8 symmetry adapted basis functions of B1U symmetry.
 There are     3 symmetry adapted basis functions of B2U symmetry.
 There are     3 symmetry adapted basis functions of B3U symmetry.
 Integral buffers will be    131072 words long.
 Raffenetti 1 integral format.
 Two-electron integral symmetry is turned on.
    30 basis functions,    56 primitive gaussians,    30 cartesian basis functions
     8 alpha electrons        8 beta electrons
       nuclear repulsion energy        29.0568385618 Hartrees.
 NAtoms=    2 NActive=    2 NUniq=    1 SFac= 4.00D+00 NAtFMM=   60 NAOKFM=F Big=F
 One-electron integrals computed using PRISM.
 NBasis=    30 RedAO= T  NBF=     8     1     3     3     1     8     3     3
 NBsUse=    30 1.00D-06 NBFU=     8     1     3     3     1     8     3     3
 Initial guess read from the read-write file.
 B after Tr=     0.000000    0.000000    0.000000
         Rot=    1.000000    0.000000    0.000000    0.000000 Ang=   0.00 deg.
 Initial guess orbital symmetries:
       Occupied  (SGG) (SGU) (SGG) (SGU) (PIU) (SGG) (PIU) (?A)
       Virtual   (?A) (SGU) (SGG) (SGU) (PIU) (PIU) (SGG) (?A)
                 (?A) (SGU) (DLTG) (DLTG) (PIU) (PIU) (DLTU) (DLTU)
                 (SGG) (PIG) (PIG) (SGU) (SGG) (SGU)
 Requested convergence on RMS density matrix=1.00D-08 within 128 cycles.
 Requested convergence on MAX density matrix=1.00D-06.
 Requested convergence on             energy=1.00D-06.
 No special actions if energy rises.
 Keep R1 ints in memory in canonical form, NReq=949693.
 SCF Done:  E(RHF) =  -149.532996970     A.U. after    7 cycles
             Convg  =    0.1975D-08             -V/T =  2.0031
 Calling FoFJK, ICntrl=      2127 FMM=F ISym2X=1 I1Cent= 0 IOpClX= 0 NMat=1 NMatS=1 NMatT=0.
 ***** Axes restored to original set *****
 -------------------------------------------------------------------
 Center     Atomic                   Forces (Hartrees/Bohr)
 Number     Number              X              Y              Z
 -------------------------------------------------------------------
      1        8           0.000000000    0.000000000   -0.000080188
      2        8           0.000000000    0.000000000    0.000080188
 -------------------------------------------------------------------
 Cartesian Forces:  Max     0.000080188 RMS     0.000046296

 GradGradGradGradGradGradGradGradGradGradGradGradGradGradGradGradGradGrad
 Berny optimization.
 Using GEDIIS/GDIIS optimizer.
 Internal  Forces:  Max     0.000080188 RMS     0.000080188
 Search for a local minimum.
 Step number   4 out of a maximum of   20
 All quantities printed in internal units (Hartrees-Bohrs-Radians)
 Mixed Optimization -- En-DIIS/RFO-DIIS
 Update second derivatives using D2CorX and points    3    4
 DE= -8.20D-05 DEPred=-6.18D-05 R= 1.33D+00
 SS=  1.41D+00  RLast= 1.18D-02 DXNew= 8.4853D-01 3.5413D-02
 Trust test= 1.33D+00 RLast= 1.18D-02 DXMaxT set to 5.05D-01
 The second derivative matrix:
                          R1
           R1           1.18240
 ITU=  1  1
 Use linear search instead of GDIIS.
     Eigenvalues ---    1.18240
 RFO step:  Lambda= 0.00000000D+00 EMin= 1.18239981D+00
 Quartic linear search produced a step of -0.00562.
 Iteration  1 RMS(Cart)=  0.00004694 RMS(Int)=  0.00000000
 Iteration  2 RMS(Cart)=  0.00000000 RMS(Int)=  0.00000000
 ClnCor:  largest displacement from symmetrization is 2.03D-21 for atom     2.
 Variable       Old X    -DE/DX   Delta X   Delta X   Delta X     New X
                                 (Linear)    (Quad)   (Total)
    R1        2.20258   0.00008   0.00007   0.00000   0.00007   2.20265
         Item               Value     Threshold  Converged?
 Maximum Force            0.000080     0.000450     YES
 RMS     Force            0.000080     0.000300     YES
 Maximum Displacement     0.000033     0.001800     YES
 RMS     Displacement     0.000047     0.001200     YES
 Predicted change in Energy=-2.717851D-09
 Optimization completed.
    -- Stationary point found.
                           ----------------------------
                           !   Optimized Parameters   !
                           ! (Angstroms and Degrees)  !
 --------------------------                            --------------------------
 ! Name  Definition              Value          Derivative Info.                !
 --------------------------------------------------------------------------------
 ! R1    R(1,2)                  1.1656         -DE/DX =    0.0001              !
 --------------------------------------------------------------------------------
 GradGradGradGradGradGradGradGradGradGradGradGradGradGradGradGradGradGrad

                          Input orientation:                          
 ---------------------------------------------------------------------
 Center     Atomic      Atomic             Coordinates (Angstroms)
 Number     Number       Type             X           Y           Z
 ---------------------------------------------------------------------
      1          8           0        0.000000    0.000000   -0.082777
      2          8           0        0.000000    0.000000    1.082777
 ---------------------------------------------------------------------
 Stoichiometry    O2
 Framework group  D*H[C*(O.O)]
 Deg. of freedom     1
 Full point group                 D*H     NOp   8
 Largest Abelian subgroup         D2H     NOp   8
 Largest concise Abelian subgroup C2      NOp   2
                         Standard orientation:                         
 ---------------------------------------------------------------------
 Center     Atomic      Atomic             Coordinates (Angstroms)
 Number     Number       Type             X           Y           Z
 ---------------------------------------------------------------------
      1          8           0        0.000000    0.000000    0.582777
      2          8           0        0.000000    0.000000   -0.582777
 ---------------------------------------------------------------------
 Rotational constants (GHZ):      0.0000000     46.5157230     46.5157230

 **********************************************************************

            Population analysis using the SCF density.

 **********************************************************************

 Orbital symmetries:
       Occupied  (SGG) (SGU) (SGG) (SGU) (PIU) (SGG) (PIU) (?A)
       Virtual   (?A) (SGU) (SGG) (SGU) (PIU) (PIU) (SGG) (?A)
                 (?A) (SGU) (DLTG) (DLTG) (PIU) (PIU) (DLTU) (DLTU)
                 (SGG) (PIG) (PIG) (SGU) (SGG) (SGU)
 Unable to determine electronic state:  an orbital has unidentified symmetry.
 Alpha  occ. eigenvalues --  -20.74491 -20.74380  -1.69722  -1.08527  -0.78336
 Alpha  occ. eigenvalues --   -0.74820  -0.67152  -0.44989
 Alpha virt. eigenvalues --    0.05022   0.51462   0.87125   0.98121   1.05713
 Alpha virt. eigenvalues --    1.07140   1.08367   1.17518   1.20736   1.53952
 Alpha virt. eigenvalues --    1.79027   1.79037   1.80799   1.81221   2.25137
 Alpha virt. eigenvalues --    2.25145   2.85640   2.92921   2.95140   3.16944
 Alpha virt. eigenvalues --    3.58198   3.92165
          Condensed to atoms (all electrons):
              1          2
     1  O    7.880437   0.119563
     2  O    0.119563   7.880437
 Mulliken atomic charges:
              1
     1  O    0.000000
     2  O    0.000000
 Sum of Mulliken atomic charges =   0.00000
 Mulliken charges with hydrogens summed into heavy atoms:
              1
     1  O    0.000000
     2  O    0.000000
 Sum of Mulliken charges with hydrogens summed into heavy atoms =   0.00000
 Electronic spatial extent (au):  <R**2>=             41.8607
 Charge=              0.0000 electrons
 Dipole moment (field-independent basis, Debye):
    X=              0.0000    Y=              0.0000    Z=              0.0000  Tot=              0.0000
 Quadrupole moment (field-independent basis, Debye-Ang):
   XX=             -9.0609   YY=            -10.7061   ZZ=            -10.4361
   XY=              0.0000   XZ=              0.0000   YZ=              0.0000
 Traceless Quadrupole moment (field-independent basis, Debye-Ang):
   XX=              1.0068   YY=             -0.6384   ZZ=             -0.3684
   XY=              0.0000   XZ=              0.0000   YZ=              0.0000
 Octapole moment (field-independent basis, Debye-Ang**2):
  XXX=              0.0000  YYY=              0.0000  ZZZ=              0.0000  XYY=              0.0000
  XXY=              0.0000  XXZ=              0.0000  XZZ=              0.0000  YZZ=              0.0000
  YYZ=              0.0000  XYZ=              0.0000
 Hexadecapole moment (field-independent basis, Debye-Ang**3):
 XXXX=             -5.8146 YYYY=             -7.2128 ZZZZ=            -26.4944 XXXY=              0.0000
 XXXZ=              0.0000 YYYX=              0.0000 YYYZ=              0.0000 ZZZX=              0.0000
 ZZZY=              0.0000 XXYY=             -2.1712 XXZZ=             -5.1003 YYZZ=             -6.3524
 XXYZ=              0.0000 YYXZ=              0.0000 ZZXY=              0.0000
 N-N= 2.905683856182D+01 E-N=-4.124034511490D+02  KE= 1.490721631791D+02
 Symmetry AG   KE= 6.944385157949D+01
 Symmetry B1G  KE= 2.211033349173D-34
 Symmetry B2G  KE= 1.855123082648D-32
 Symmetry B3G  KE= 5.952049356992D+00
 Symmetry AU   KE= 5.326234341509D-34
 Symmetry B1U  KE= 6.481412551950D+01
 Symmetry B2U  KE= 4.669152551373D+00
 Symmetry B3U  KE= 4.192984171794D+00
 1\1\GINC-LOCALHOST\FOpt\RHF\6-31G(d,p)\O2\FRANCOIS\13-Jan-2021\0\\#HF/
 6-31g** opt\\O2\\0,1\O,0.,0.,-0.0827774635\O,0.,0.,1.0827774635\\Versi
 on=EM64L-G09RevC.01\HF=-149.532997\RMSD=1.975e-09\RMSF=4.630e-05\Dipol
 e=0.,0.,0.\Quadrupole=0.7485634,-0.4746549,-0.2739085,0.,0.,0.\PG=D*H 
 [C*(O1.O1)]\\@


 MOM AND DAD WENT TO ALPHA CENTAURI AND ALL
 I GOT WAS THIS DUMB T-SHIRT.
 Job cpu time:  0 days  0 hours  0 minutes  4.9 seconds.
 File lengths (MBytes):  RWF=      5 Int=      0 D2E=      0 Chk=      1 Scr=      1
 Normal termination of Gaussian 09 at Wed Jan 13 13:09:37 2021.
